 Entering Gaussian System, Link 0=gdv
 Input=B+_STO3G.com
 Output=B+_STO3G.log
 Initial command:
 /home1/gaussian/g09/D01/g09/l1.exe /home4/jjgoings/Gau-13027.inp -scrdir=/home4/jjgoings/
 Entering Link 1 = /home1/gaussian/g09/D01/g09/l1.exe PID=     13028.
  
 Copyright (c) 1988,1990,1992,1993,1995,1998,2003,2009,2013,
            Gaussian, Inc.  All Rights Reserved.
  
 This is part of the Gaussian(R) 09 program.  It is based on
 the Gaussian(R) 03 system (copyright 2003, Gaussian, Inc.),
 the Gaussian(R) 98 system (copyright 1998, Gaussian, Inc.),
 the Gaussian(R) 94 system (copyright 1995, Gaussian, Inc.),
 the Gaussian 92(TM) system (copyright 1992, Gaussian, Inc.),
 the Gaussian 90(TM) system (copyright 1990, Gaussian, Inc.),
 the Gaussian 88(TM) system (copyright 1988, Gaussian, Inc.),
 the Gaussian 86(TM) system (copyright 1986, Carnegie Mellon
 University), and the Gaussian 82(TM) system (copyright 1983,
 Carnegie Mellon University). Gaussian is a federally registered
 trademark of Gaussian, Inc.
  
 This software contains proprietary and confidential information,
 including trade secrets, belonging to Gaussian, Inc.
  
 This software is provided under written license and may be
 used, copied, transmitted, or stored only in accord with that
 written license.
  
 The following legend is applicable only to US Government
 contracts under FAR:
  
                    RESTRICTED RIGHTS LEGEND
  
 Use, reproduction and disclosure by the US Government is
 subject to restrictions as set forth in subparagraphs (a)
 and (c) of the Commercial Computer Software - Restricted
 Rights clause in FAR 52.227-19.
  
 Gaussian, Inc.
 340 Quinnipiac St., Bldg. 40, Wallingford CT 06492
  
  
 ---------------------------------------------------------------
 Warning -- This program may not be used in any manner that
 competes with the business of Gaussian, Inc. or will provide
 assistance to any competitor of Gaussian, Inc.  The licensee
 of this program is prohibited from giving any competitor of
 Gaussian, Inc. access to this program.  By using this program,
 the user acknowledges that Gaussian, Inc. is engaged in the
 business of creating and licensing software in the field of
 computational chemistry and represents and warrants to the
 licensee that it is not a competitor of Gaussian, Inc. and that
 it will not use this program in any manner prohibited above.
 ---------------------------------------------------------------
  

 Cite this work as:
 Gaussian 09, Revision D.01,
 M. J. Frisch, G. W. Trucks, H. B. Schlegel, G. E. Scuseria, 
 M. A. Robb, J. R. Cheeseman, G. Scalmani, V. Barone, B. Mennucci, 
 G. A. Petersson, H. Nakatsuji, M. Caricato, X. Li, H. P. Hratchian, 
 A. F. Izmaylov, J. Bloino, G. Zheng, J. L. Sonnenberg, M. Hada, 
 M. Ehara, K. Toyota, R. Fukuda, J. Hasegawa, M. Ishida, T. Nakajima, 
 Y. Honda, O. Kitao, H. Nakai, T. Vreven, J. A. Montgomery, Jr., 
 J. E. Peralta, F. Ogliaro, M. Bearpark, J. J. Heyd, E. Brothers, 
 K. N. Kudin, V. N. Staroverov, T. Keith, R. Kobayashi, J. Normand, 
 K. Raghavachari, A. Rendell, J. C. Burant, S. S. Iyengar, J. Tomasi, 
 M. Cossi, N. Rega, J. M. Millam, M. Klene, J. E. Knox, J. B. Cross, 
 V. Bakken, C. Adamo, J. Jaramillo, R. Gomperts, R. E. Stratmann, 
 O. Yazyev, A. J. Austin, R. Cammi, C. Pomelli, J. W. Ochterski, 
 R. L. Martin, K. Morokuma, V. G. Zakrzewski, G. A. Voth, 
 P. Salvador, J. J. Dannenberg, S. Dapprich, A. D. Daniels, 
 O. Farkas, J. B. Foresman, J. V. Ortiz, J. Cioslowski, 
 and D. J. Fox, Gaussian, Inc., Wallingford CT, 2013.
 
 ******************************************
 Gaussian 09:  ES64L-G09RevD.01 24-Apr-2013
                25-Nov-2013 
 ******************************************
 ----------------------------------------------------------------------
 #p rhf/sto-3g scf(conventional) Iop(3/33=6) Extralinks=L316 Noraff Sym
 m=Noint Iop(3/33=1) pop(full)
 ----------------------------------------------------------------------
 1/38=1/1;
 2/12=2,17=6,18=5,40=1/2;
 3/6=3,16=1,25=20,28=1,33=1,116=1/1,2,3,20,16;
 4//1;
 5/5=1,29=1/2;
 6/7=3,28=1/1;
 99/5=1,9=1/99;
 Leave Link    1 at Mon Nov 25 16:02:16 2013, MaxMem=           0 cpu:         0.1
 (Enter /home1/gaussian/g09/D01/g09/l101.exe)
 ----------------------------
 boron test to dump integrals
 ----------------------------
 Symbolic Z-matrix:
 Charge =  1 Multiplicity = 1
 B
 
 NAtoms=      1 NQM=        1 NQMF=       0 NMMI=      0 NMMIF=      0
                NMic=       0 NMicF=      0.
                    Isotopes and Nuclear Properties:
 (Nuclear quadrupole moments (NQMom) in fm**2, nuclear magnetic moments (NMagM)
  in nuclear magnetons)

  Atom         1
 IAtWgt=          11
 AtmWgt=  11.0093053
 NucSpn=           3
 AtZEff=   0.0000000
 NQMom=    4.0590000
 NMagM=    2.6886370
 AtZNuc=   5.0000000
 Leave Link  101 at Mon Nov 25 16:02:17 2013, MaxMem=    33554432 cpu:         0.1
 (Enter /home1/gaussian/g09/D01/g09/l202.exe)
                          Input orientation:                          
 ---------------------------------------------------------------------
 Center     Atomic      Atomic             Coordinates (Angstroms)
 Number     Number       Type             X           Y           Z
 ---------------------------------------------------------------------
      1          5           0        0.000000    0.000000    0.000000
 ---------------------------------------------------------------------
 Stoichiometry    B(1+)
 Framework group  OH[O(B)]
 Deg. of freedom     0
 Full point group                 OH      NOp  48
 Largest Abelian subgroup         D2H     NOp   8
 Largest concise Abelian subgroup C1      NOp   1
                         Standard orientation:                         
 ---------------------------------------------------------------------
 Center     Atomic      Atomic             Coordinates (Angstroms)
 Number     Number       Type             X           Y           Z
 ---------------------------------------------------------------------
      1          5           0        0.000000    0.000000    0.000000
 ---------------------------------------------------------------------
 Leave Link  202 at Mon Nov 25 16:02:17 2013, MaxMem=    33554432 cpu:         0.0
 (Enter /home1/gaussian/g09/D01/g09/l301.exe)
 Standard basis: STO-3G (5D, 7F)
                         Coordinates in L301:                         
 ---------------------------------------------------------------------
 Center     Atomic      Atomic             Coordinates (Angstroms)
 Number     Number       Type             X           Y           Z
 ---------------------------------------------------------------------
      1          5           0        0.000000    0.000000    0.000000
 ---------------------------------------------------------------------
 FixB: optimizing general contractions.
 Ernie: Thresh=  0.10000D-02 Tol=  0.10000D-05 Strict=F.
 IA=     1 ShT= 0 ShC= 0 NL=   1 NS=   0.
 IA=     1 L=0 SC=0 ISt=    0 NBk=    0 NP=    0 IndPr=    0.
 IA=     1 ShT= 1 ShC= 0 NL=   1 NS=   0.
 IA=     1 L=1 SC=0 ISt=    0 NBk=    0 NP=    0 IndPr=    0.
 LdAtmC:  AtmChg=     5.000000
 AtZEff=     -2.7500000
 NEqShl: 
              1            2            3            4            5
     1            1            1            1            1            1
     2            2            2            2            2            2
              6            7            8            9           10
     1            1            1            1            1            1
     2            2            2            2            2            2
             11           12           13           14           15
     1            1            1            1            1            1
     2            2            2            2            2            2
             16           17           18           19           20
     1            1            1            1            1            1
     2            2            2            2            2            2
             21           22           23           24           25
     1            1            1            1            1            1
     2            2            2            2            2            2
             26           27           28           29           30
     1            1            1            1            1            1
     2            2            2            2            2            2
             31           32           33           34           35
     1            1            1            1            1            1
     2            2            2            2            2            2
             36           37           38           39           40
     1            1            1            1            1            1
     2            2            2            2            2            2
             41           42           43           44           45
     1            1            1            1            1            1
     2            2            2            2            2            2
             46           47           48
     1            1            1            1
     2            2            2            2
 NEqBas: 
              1            2            3            4            5
     1            1            1            1            1            1
     2            2            2            2            2            2
     3            3            3           -3           -3           -3
     4            4           -4            4           -4           -4
     5            5           -5           -5            5           -5
              6            7            8
     1            1            1            1
     2            2            2            2
     3           -3            3            3
     4            4           -4            4
     5            5            5           -5
 There are     2 symmetry adapted cartesian basis functions of AG  symmetry.
   1         1   1   1   1   1   1   1   1
   2         2   2   2   2   2   2   2   2
 There are     0 symmetry adapted cartesian basis functions of B1G symmetry.
 There are     0 symmetry adapted cartesian basis functions of B2G symmetry.
 There are     0 symmetry adapted cartesian basis functions of B3G symmetry.
 There are     0 symmetry adapted cartesian basis functions of AU  symmetry.
 There are     1 symmetry adapted cartesian basis functions of B1U symmetry.
   3         5   5   5   5   5   5   5   5
 There are     1 symmetry adapted cartesian basis functions of B2U symmetry.
   4         4   4   4   4   4   4   4   4
 There are     1 symmetry adapted cartesian basis functions of B3U symmetry.
   5         3   3   3   3   3   3   3   3
 Order= 1 4 3 2 5 8 7 6
 Reordered character table:
              1            2            3            4            5
     1            1            1            1            1            1
     2            4            1           -1           -1            1
     3            3            1           -1            1           -1
     4            2            1            1           -1           -1
     5            5            1            1            1            1
     6            8            1           -1           -1            1
     7            7            1           -1            1           -1
     8            6            1            1           -1           -1
              6            7            8            9
     1            1            1            1            1
     2            1           -1           -1            1
     3            1           -1            1           -1
     4            1            1           -1           -1
     5           -1           -1           -1           -1
     6           -1            1            1           -1
     7           -1            1           -1            1
     8           -1           -1            1            1
 NEqShl: 
              1            2            3            4            5
     1            1            1            1            1            1
     2            2            2            2            2            2
              6            7            8            9           10
     1            1            1            1            1            1
     2            2            2            2            2            2
             11           12           13           14           15
     1            1            1            1            1            1
     2            2            2            2            2            2
             16           17           18           19           20
     1            1            1            1            1            1
     2            2            2            2            2            2
             21           22           23           24           25
     1            1            1            1            1            1
     2            2            2            2            2            2
             26           27           28           29           30
     1            1            1            1            1            1
     2            2            2            2            2            2
             31           32           33           34           35
     1            1            1            1            1            1
     2            2            2            2            2            2
             36           37           38           39           40
     1            1            1            1            1            1
     2            2            2            2            2            2
             41           42           43           44           45
     1            1            1            1            1            1
     2            2            2            2            2            2
             46           47           48
     1            1            1            1
     2            2            2            2
 NEqBas: 
              1            2            3            4            5
     1            1            1            1            1            1
     2            2            2            2            2            2
     3            3            3           -3           -3           -3
     4            4           -4            4           -4           -4
     5            5           -5           -5            5           -5
              6            7            8
     1            1            1            1
     2            2            2            2
     3           -3            3            3
     4            4           -4            4
     5            5            5           -5
 There are     2 symmetry adapted basis functions of AG  symmetry.
   1         1   1   1   1   1   1   1   1
   2         2   2   2   2   2   2   2   2
 There are     0 symmetry adapted basis functions of B1G symmetry.
 There are     0 symmetry adapted basis functions of B2G symmetry.
 There are     0 symmetry adapted basis functions of B3G symmetry.
 There are     0 symmetry adapted basis functions of AU  symmetry.
 There are     1 symmetry adapted basis functions of B1U symmetry.
   3         5   5   5   5   5   5   5   5
 There are     1 symmetry adapted basis functions of B2U symmetry.
   4         4   4   4   4   4   4   4   4
 There are     1 symmetry adapted basis functions of B3U symmetry.
   5         3   3   3   3   3   3   3   3
 Order= 1 4 3 2 5 8 7 6
 Reordered character table:
              1            2            3            4            5
     1            1            1            1            1            1
     2            4            1           -1           -1            1
     3            3            1           -1            1           -1
     4            2            1            1           -1           -1
     5            5            1            1            1            1
     6            8            1           -1           -1            1
     7            7            1           -1            1           -1
     8            6            1            1           -1           -1
              6            7            8            9
     1            1            1            1            1
     2            1           -1           -1            1
     3            1           -1            1           -1
     4            1            1           -1           -1
     5           -1           -1           -1           -1
     6           -1            1            1           -1
     7           -1            1           -1            1
     8           -1           -1            1            1
     5 basis functions,    15 primitive gaussians,     5 cartesian basis functions
     2 alpha electrons        2 beta electrons
       nuclear repulsion energy         0.0000000000 Hartrees.
 IS=     1 IAt=     1 ISR=     1 T=0 IP=      1 IndIP=      1 IndIPD=      0 C=  2.030547D+00  0.000000D+00                             NZ=T
 IS=     1 IAt=     1 ISR=     1 T=0 IP=      2 IndIP=      2 IndIPD=      1 C=  1.963857D+00  0.000000D+00                             NZ=T
 IS=     1 IAt=     1 ISR=     1 T=0 IP=      3 IndIP=      3 IndIPD=      2 C=  6.120484D-01  0.000000D+00                             NZ=T
 IS=     2 IAt=     1 ISR=     2 T=1 IP=      1 IndIP=      4 IndIPD=      0 C= -1.303199D-01  6.079997D-01                             NZ=T
 IS=     2 IAt=     1 ISR=     2 T=1 IP=      2 IndIP=      5 IndIPD=      1 C=  1.743134D-01  3.823265D-01                             NZ=T
 IS=     2 IAt=     1 ISR=     2 T=1 IP=      3 IndIP=      6 IndIPD=      2 C=  1.315570D-01  6.056695D-02                             NZ=T
 IExCor=    0 DFT=F Ex=HF Corr=None ExCW=0 ScaHFX=  1.000000
 ScaDFX=  1.000000  1.000000  1.000000  1.000000 ScalE2=  1.000000  1.000000
 IRadAn=      0 IRanWt=     -1 IRanGd=            0 ICorTp=0 IEmpDi=  4
 NAtoms=    1 NActive=    1 NUniq=    1 SFac= 1.00D+00 NAtFMM=   60 NAOKFM=F Big=F
 Integral buffers will be    131072 words long.
 Regular integral format.
 Two-electron integral symmetry is turned off.
 Leave Link  301 at Mon Nov 25 16:02:17 2013, MaxMem=    33554432 cpu:         0.1
 (Enter /home1/gaussian/g09/D01/g09/l302.exe)
 NPDir=0 NMtPBC=     1 NCelOv=     1 NCel=       1 NClECP=     1 NCelD=      1
         NCelK=      1 NCelE2=     1 NClLst=     1 CellRange=     0.0.
 One-electron integrals computed using PRISM.
 Entering OneElI...
 Calculate overlap and kinetic energy integrals
    NBasis =   5  MinDer = 0  MaxDer = 0
 Requested accuracy = 0.1000D-12
 PrsmSu:  NPrtUS=   1 ThrOK=F IAlg=1 NPAlg=1 LenDen=           0.
 Prism:   IPart=     0 DynPar=F LinDyn=F Incr=           1.
 PRISM was handed    33553100 working-precision words and     3 shell-pairs
 IPart=  0 NShTot=           3 NBatch=           3 AvBLen=         1.0
 PrSmSu:  NxtVal=              2.
 *** Overlap *** 
                1             2             3             4             5 
      1  0.100000D+01
      2  0.269328D+00  0.100000D+01
      3  0.000000D+00  0.000000D+00  0.100000D+01
      4  0.000000D+00  0.000000D+00  0.000000D+00  0.100000D+01
      5  0.000000D+00  0.000000D+00  0.000000D+00  0.000000D+00  0.100000D+01
 *** Kinetic Energy *** 
                1             2             3             4             5 
      1  0.108263D+02
      2 -0.479673D-01  0.359168D+00
      3  0.000000D+00  0.000000D+00  0.112388D+01
      4  0.000000D+00  0.000000D+00  0.000000D+00  0.112388D+01
      5  0.000000D+00  0.000000D+00  0.000000D+00  0.000000D+00  0.112388D+01
 Entering OneElI...
 Calculate potential energy integrals
    NBasis =   5  MinDer = 0  MaxDer = 0
 Requested accuracy = 0.1000D-12
 PrsmSu:  NPrtUS=   1 ThrOK=F IAlg=1 NPAlg=1 LenDen=           0.
 Prism:   IPart=     0 DynPar=F LinDyn=F Incr=           1.
 PRISM was handed    33553100 working-precision words and     3 shell-pairs
 IPart=  0 NShTot=           3 NBatch=           3 AvBLen=         1.0
 PrSmSu:  NxtVal=              2.
 ***** Potential Energy ***** 
                1             2             3             4             5 
      1  0.231474D+02
      2  0.313936D+01  0.377163D+01
      3  0.000000D+00  0.000000D+00  0.374144D+01
      4  0.000000D+00  0.000000D+00  0.000000D+00  0.374144D+01
      5  0.000000D+00  0.000000D+00  0.000000D+00  0.000000D+00  0.374144D+01
 ****** Core Hamiltonian ****** 
                1             2             3             4             5 
      1 -0.123211D+02
      2 -0.318733D+01 -0.341246D+01
      3  0.000000D+00  0.000000D+00 -0.261756D+01
      4  0.000000D+00  0.000000D+00  0.000000D+00 -0.261756D+01
      5  0.000000D+00  0.000000D+00  0.000000D+00  0.000000D+00 -0.261756D+01
 SVDSVc IOpt=  1 IR=1
 SVDSVc V= 1.02D+01 5.85D+00
 SVDSVc IOpt=  1 IR=6
 SVDSVc V= 8.00D+00
 SVDSVc IOpt=  1 IR=7
 SVDSVc V= 8.00D+00
 SVDSVc IOpt=  1 IR=8
 SVDSVc V= 8.00D+00
 TstOVc:  Largest diagonal error= 1.33D-15 IB=1 I=    1.
 TstOVc:  Largest same sym error= 1.67D-16 IB=1 I=    2 J=    1.
 TstOVc:  Largest diff sym error= 0.00D+00 IB=0 JB=0 I=    0 J=    0.
 Orthogonalized basis functions: 
                 1             2             3             4             5 
      1   0.627622D+00  0.827225D+00  0.000000D+00  0.000000D+00  0.000000D+00
      2   0.627622D+00 -0.827225D+00  0.000000D+00  0.000000D+00  0.000000D+00
      3   0.000000D+00  0.000000D+00  0.000000D+00  0.000000D+00  0.100000D+01
      4   0.000000D+00  0.000000D+00  0.000000D+00  0.100000D+01  0.000000D+00
      5   0.000000D+00  0.000000D+00  0.100000D+01  0.000000D+00  0.000000D+00
 NBasis=     5 RedAO= T EigKep=  2.07D+00  NBF=     2     0     0     0     0     1     1     1
 NBsUse=     5 1.00D-06 EigRej= -1.00D+00 NBFU=     2     0     0     0     0     1     1     1
 Leave Link  302 at Mon Nov 25 16:02:17 2013, MaxMem=    33554432 cpu:         0.3
 (Enter /home1/gaussian/g09/D01/g09/l303.exe)
 DipDrv:  MaxL=1.
 DipPsm:  J= 1 NJ= 4 MaxL=1 MMat= 4 MaxMat= 4.
 DipInt: DoE/N= T F RetVal/Mat= F T Init=T NMatP=  4 IDeriv=0 Min/MaxMlt=  0  1
 Entering OneElI...
 Multipole integrals L=0 to 1 MinM= 0 MaxM= 3.
 Requested accuracy = 0.1000D-12
 PrsmSu:  NPrtUS=   1 ThrOK=F IAlg=1 NPAlg=1 LenDen=           0.
 Prism:   IPart=     0 DynPar=F LinDyn=F Incr=           1.
 PRISM was handed    33553188 working-precision words and     3 shell-pairs
 IPart=  0 NShTot=           3 NBatch=           3 AvBLen=         1.0
 PrSmSu:  NxtVal=              2.
 Multipole matrices IBuc=  518 IX=    1 IJ=           1:
                1             2             3             4             5 
      1  0.000000D+00
      2  0.000000D+00  0.000000D+00
      3  0.939707D-01  0.961759D+00  0.000000D+00
      4  0.000000D+00  0.000000D+00  0.000000D+00  0.000000D+00
      5  0.000000D+00  0.000000D+00  0.000000D+00  0.000000D+00  0.000000D+00
 Multipole matrices IBuc=  518 IX=    2 IJ=           1:
                1             2             3             4             5 
      1  0.000000D+00
      2  0.000000D+00  0.000000D+00
      3  0.000000D+00  0.000000D+00  0.000000D+00
      4  0.939707D-01  0.961759D+00  0.000000D+00  0.000000D+00
      5  0.000000D+00  0.000000D+00  0.000000D+00  0.000000D+00  0.000000D+00
 Multipole matrices IBuc=  518 IX=    3 IJ=           1:
                1             2             3             4             5 
      1  0.000000D+00
      2  0.000000D+00  0.000000D+00
      3  0.000000D+00  0.000000D+00  0.000000D+00
      4  0.000000D+00  0.000000D+00  0.000000D+00  0.000000D+00
      5  0.939707D-01  0.961759D+00  0.000000D+00  0.000000D+00  0.000000D+00
 Fermi contact integrals: 
                 1 
      1   0.460645D+01
      2   0.175550D+00
      3   0.000000D+00
      4   0.000000D+00
      5   0.000000D+00
 Leave Link  303 at Mon Nov 25 16:02:17 2013, MaxMem=    33554432 cpu:         0.2
 (Enter /home1/gaussian/g09/D01/g09/l320.exe)
 Enter DskPsm, NBasis=   5 NBas6D=   5 NShell=   2 IDoSP=4.
 Out2e will use a cutoff of  1.00D-10
 FoFCou: FMM=F IPFlag=           0 FMFlag=           0 FMFlg1=           0
         NFxFlg=           0 DoJE=F BraDBF=F KetDBF=F FulRan=T
         wScrn=  0.000000 ICntrl=     600 IOpCl=  9 I1Cent=           0 NGrid=           0
         NMat0=    0 NMatS0=      0 NMatT0=    0 NMatD0=    0 NMtDS0=    0 NMtDT0=    0
 Symmetry not used in FoFCou.
 FoFCou:  KetSym=F NOpSet=  1 NOpAb=1 NOp=  1.
 FoFCou:  CnvScl= 1.00D+00 Thresh= 1.00D-11 IAcrcy=      10.
 PrismS was handed    33291059 working-precision words and     3 shell-pairs
 FoFCou: LinMIO=F DoNuc=F BraDBF=F KetDBF=F HaveP=F PDBF=F HaveZ=F HaveW=F
         NIJTC =       3 NIJTAt=       0 NIJTCD=       0 NIJTT =       3
         IJTBeg=       1 IJTEnd=       3 KLTBeg=       1 KLTEnd=       3
         IPTBeg=       1 IPTEnd=       3 IPTBCv=       1 IPTECv=       3
         IZTBeg=       1 IZTEnd=       3 IZTBCv=       1 IZTECv=       3
         IWTBeg=       4 IWTEnd=       3 IWTBCv=       4 IWTECv=       3
         INTBeg=       1 INTEnd=       0 IFTBCv=       1 IFTECv=       3
 NCel replicated for PrismC:     1
 CoulSu:  IncDef=  1024 NBBP=              6 NTPThr=   100 NPartT=    1 Incr=           1 LDynOK=F.
 CoulSu:  NPrtUS=   1 ThrOK=F IAlg=1 NPAlg=1 LenDen=           0 LWGrdD=           0 DoCopy=F.
 Enter PrismC: JobTyp=20 DoJE=F Cont=F.
 PrismC:  IPart=     0 DynPar=F LinDyn=F Incr=           1 UseFst=F UseS4=T IGathr=1.
 PrismC was handed    33291037 working-precision words and     3 shell-pairs
 IPart=  0 NShTot=           6 NShNF=           6 NShFF=           0 NBatch=           6 AvBLen=         1.0
 CoulSu:  NxtVal=              2.
           33 integrals produced for a total of           33.
 Leave Link  320 at Mon Nov 25 16:02:18 2013, MaxMem=    33554432 cpu:         0.2
 (Enter /home1/gaussian/g09/D01/g09/l316.exe)



 *** Dumping Two-Electron integrals ***



 ISMode= 0 Mode= 1 IBase=         1 IBasD=         1    131073
 DBase=         0 DBasD=         0         0 IReset=         2    131070
 IntCnt=        33 ITotal=        33 NWIIB=    131072 ISym2E=0
 I=  1 J=  1 K=  1 L=  1 Int=  0.292351275712D+01
 I=  2 J=  1 K=  1 L=  1 Int=  0.518376191891D+00
 I=  5 J=  5 K=  1 L=  1 Int=  0.742491208754D+00
 I=  4 J=  4 K=  1 L=  1 Int=  0.742491208754D+00
 I=  3 J=  3 K=  1 L=  1 Int=  0.742491208754D+00
 I=  2 J=  2 K=  1 L=  1 Int=  0.744229324474D+00
 I=  5 J=  1 K=  5 L=  1 Int=  0.202636874574D-01
 I=  4 J=  1 K=  4 L=  1 Int=  0.202636874574D-01
 I=  3 J=  1 K=  3 L=  1 Int=  0.202636874574D-01
 I=  2 J=  1 K=  2 L=  1 Int=  0.109261902804D+00
 I=  5 J=  2 K=  5 L=  1 Int=  0.299959967777D-01
 I=  4 J=  2 K=  4 L=  1 Int=  0.299959967777D-01
 I=  3 J=  2 K=  3 L=  1 Int=  0.299959967777D-01
 I=  5 J=  5 K=  2 L=  1 Int=  0.193239817223D+00
 I=  4 J=  4 K=  2 L=  1 Int=  0.193239817223D+00
 I=  3 J=  3 K=  2 L=  1 Int=  0.193239817223D+00
 I=  2 J=  2 K=  2 L=  1 Int=  0.193177397775D+00
 I=  5 J=  5 K=  5 L=  5 Int=  0.586772726399D+00
 I=  5 J=  4 K=  5 L=  4 Int=  0.316296295737D-01
 I=  5 J=  5 K=  4 L=  4 Int=  0.523513467251D+00
 I=  4 J=  4 K=  4 L=  4 Int=  0.586772726399D+00
 I=  5 J=  3 K=  5 L=  3 Int=  0.316296295737D-01
 I=  4 J=  3 K=  4 L=  3 Int=  0.316296295737D-01
 I=  5 J=  5 K=  3 L=  3 Int=  0.523513467251D+00
 I=  4 J=  4 K=  3 L=  3 Int=  0.523513467251D+00
 I=  3 J=  3 K=  3 L=  3 Int=  0.586772726399D+00
 I=  5 J=  2 K=  5 L=  2 Int=  0.120345591750D+00
 I=  4 J=  2 K=  4 L=  2 Int=  0.120345591750D+00
 I=  3 J=  2 K=  3 L=  2 Int=  0.120345591750D+00
 I=  5 J=  5 K=  2 L=  2 Int=  0.544681727377D+00
 I=  4 J=  4 K=  2 L=  2 Int=  0.544681727377D+00
 I=  3 J=  3 K=  2 L=  2 Int=  0.544681727377D+00
 I=  2 J=  2 K=  2 L=  2 Int=  0.544804197210D+00
 Leave Link  316 at Mon Nov 25 16:02:18 2013, MaxMem=    33554432 cpu:         0.0
 (Enter /home1/gaussian/g09/D01/g09/l401.exe)
 ExpMin= 1.69D-01 ExpMax= 4.88D+01 ExpMxC= 4.88D+01 IAcc=1 IRadAn=         1 AccDes= 0.00D+00
 Harris functional with IExCor=  205 and IRadAn=       1 diagonalized for initial guess.
 HarFok:  IExCor=  205 AccDes= 0.00D+00 IRadAn=         1 IDoV= 1 UseB2=F ITyADJ=14
 ICtDFT=  3500011 ScaDFX=  1.000000  1.000000  1.000000  1.000000
 FoFCou: FMM=F IPFlag=           0 FMFlag=      100000 FMFlg1=           0
         NFxFlg=           0 DoJE=T BraDBF=F KetDBF=T FulRan=T
         wScrn=  0.000000 ICntrl=     500 IOpCl=  0 I1Cent=   200000004 NGrid=           0
         NMat0=    1 NMatS0=      1 NMatT0=    0 NMatD0=    1 NMtDS0=    0 NMtDT0=    0
 Petite list used in FoFCou.
 Harris En= -23.9670213146734    
 JPrj=0 DoOrth=F DoCkMO=F.
 Initial guess orbital symmetries:
       Occupied  (A1G) (A1G)
       Virtual   (T1U) (T1U) (T1U)
 The electronic state of the initial guess is 1-A1G.
 Leave Link  401 at Mon Nov 25 16:02:18 2013, MaxMem=    33554432 cpu:         0.3
 (Enter /home1/gaussian/g09/D01/g09/l502.exe)
 Closed shell SCF:
 Using DIIS extrapolation, IDIIS=  1040.
 Unsorted integral processing.
 Two-electron integral symmetry not used.
 IVT=      265196 IEndB=      151227 NGot=    33554432 MDV=    33551380
 LenX=    33289236 LenY=    33550498
 Requested convergence on RMS density matrix=1.00D-08 within 128 cycles.
 Requested convergence on MAX density matrix=1.00D-06.
 Requested convergence on             energy=1.00D-06.
 No special actions if energy rises.

 Cycle   1  Pass 1  IDiag  1:
 E= -23.9484703846076    
 DIIS: error= 2.54D-15 at cycle   1 NSaved=   1.
 NSaved= 1 IEnMin= 1 EnMin= -23.9484703846076     IErMin= 1 ErrMin= 2.54D-15
 ErrMax= 2.54D-15  0.00D+00 EMaxC= 1.00D-01 BMatC= 2.57D-29 BMatP= 2.57D-29
 IDIUse=1 WtCom= 1.00D+00 WtEn= 0.00D+00
 Coeff-Com:  0.100D+01
 Coeff:      0.100D+01
 Gap=     0.651 Goal=   None    Shift=    0.000
 RMSDP=6.47D-17 MaxDP=2.22D-16              OVMax= 0.00D+00

 SCF Done:  E(RHF) =  -23.9484703846     A.U. after    1 cycles
            NFock=  1  Conv=0.65D-16     -V/T= 1.9906
 KE= 2.417630321019D+01 PE=-5.440216641035D+01 EE= 6.277392815545D+00
 Leave Link  502 at Mon Nov 25 16:02:18 2013, MaxMem=    33554432 cpu:         0.1
 (Enter /home1/gaussian/g09/D01/g09/l601.exe)
 Copying SCF densities to generalized density rwf, IOpCl= 0 IROHF=0.

 **********************************************************************

            Population analysis using the SCF density.

 **********************************************************************

 Orbital symmetries:
       Occupied  (A1G) (A1G)
       Virtual   (T1U) (T1U) (T1U)
 The electronic state is 1-A1G.
 Alpha  occ. eigenvalues --   -7.98629  -0.84925
 Alpha virt. eigenvalues --   -0.20052  -0.20052  -0.20052
     Molecular Orbital Coefficients:
                           1         2         3         4         5
                       (A1G)--O  (A1G)--O  (T1U)--V  (T1U)--V  (T1U)--V
     Eigenvalues --    -7.98629  -0.84925  -0.20052  -0.20052  -0.20052
   1 1   B  1S          0.99369  -0.30130   0.00000   0.00000   0.00000
   2        2S          0.02254   1.03812   0.00000   0.00000   0.00000
   3        2PX         0.00000   0.00000   0.00000   0.00000   1.00000
   4        2PY         0.00000   0.00000   0.00000   1.00000   0.00000
   5        2PZ         0.00000   0.00000   1.00000   0.00000   0.00000
     Density Matrix:
                           1         2         3         4         5
   1 1   B  1S          2.15642
   2        2S         -0.58078   2.15642
   3        2PX         0.00000   0.00000   0.00000
   4        2PY         0.00000   0.00000   0.00000   0.00000
   5        2PZ         0.00000   0.00000   0.00000   0.00000   0.00000
    Full Mulliken population analysis:
                           1         2         3         4         5
   1 1   B  1S          2.15642
   2        2S         -0.15642   2.15642
   3        2PX         0.00000   0.00000   0.00000
   4        2PY         0.00000   0.00000   0.00000   0.00000
   5        2PZ         0.00000   0.00000   0.00000   0.00000   0.00000
     Gross orbital populations:
                           1
   1 1   B  1S          2.00000
   2        2S          2.00000
   3        2PX         0.00000
   4        2PY         0.00000
   5        2PZ         0.00000
          Condensed to atoms (all electrons):
               1
     1  B    4.000000
 Mulliken charges:
               1
     1  B    1.000000
 Sum of Mulliken charges =   1.00000
 Mulliken charges with hydrogens summed into heavy atoms:
               1
     1  B    1.000000
 Electronic spatial extent (au):  <R**2>=              7.3074
 Charge=              1.0000 electrons
 Dipole moment (field-independent basis, Debye):
    X=              0.0000    Y=              0.0000    Z=              0.0000  Tot=              0.0000
 Quadrupole moment (field-independent basis, Debye-Ang):
   XX=             -3.2763   YY=             -3.2763   ZZ=             -3.2763
   XY=              0.0000   XZ=              0.0000   YZ=              0.0000
 Traceless Quadrupole moment (field-independent basis, Debye-Ang):
   XX=              0.0000   YY=              0.0000   ZZ=              0.0000
   XY=              0.0000   XZ=              0.0000   YZ=              0.0000
 Octapole moment (field-independent basis, Debye-Ang**2):
  XXX=              0.0000  YYY=              0.0000  ZZZ=              0.0000  XYY=              0.0000
  XXY=              0.0000  XXZ=              0.0000  XZZ=              0.0000  YZZ=              0.0000
  YYZ=              0.0000  XYZ=              0.0000
 Hexadecapole moment (field-independent basis, Debye-Ang**3):
 XXXX=             -3.2633 YYYY=             -3.2633 ZZZZ=             -3.2633 XXXY=              0.0000
 XXXZ=              0.0000 YYYX=              0.0000 YYYZ=              0.0000 ZZZX=              0.0000
 ZZZY=              0.0000 XXYY=             -1.0878 XXZZ=             -1.0878 YYZZ=             -1.0878
 XXYZ=              0.0000 YYXZ=              0.0000 ZZXY=              0.0000
 N-N= 0.000000000000D+00 E-N=-5.440216641035D+01  KE= 2.417630321019D+01
 Symmetry AG   KE= 2.417630321019D+01
 Symmetry B1G  KE= 0.000000000000D+00
 Symmetry B2G  KE= 0.000000000000D+00
 Symmetry B3G  KE= 0.000000000000D+00
 Symmetry AU   KE= 0.000000000000D+00
 Symmetry B1U  KE= 0.000000000000D+00
 Symmetry B2U  KE= 0.000000000000D+00
 Symmetry B3U  KE= 0.000000000000D+00
 Orbital energies and kinetic energies (alpha):
                                 1                 2
   1         (A1G)--O         -7.986287         10.688214
   2         (A1G)--O         -0.849252          1.399937
   3         (T1U)--V         -0.200518          1.123881
   4         (T1U)--V         -0.200518          1.123881
   5         (T1U)--V         -0.200518          1.123881
 Total kinetic energy from orbitals= 2.417630321019D+01
 No NMR shielding tensors so no spin-rotation constants.
 Leave Link  601 at Mon Nov 25 16:02:18 2013, MaxMem=    33554432 cpu:         0.2
 (Enter /home1/gaussian/g09/D01/g09/l9999.exe)

 Test job not archived.
 1\1\GINC-BONANZA\SP\RHF\STO-3G\B1(1+)\JJGOINGS\25-Nov-2013\0\\#p rhf/s
 to-3g scf(conventional) Iop(3/33=6) Extralinks=L316 Noraff Symm=Noint 
 Iop(3/33=1) pop(full)\\boron test to dump integrals\\1,1\B\\Version=ES
 64L-G09RevD.01\State=1-A1G\HF=-23.9484704\RMSD=6.474e-17\Dipole=0.,0.,
 0.\Quadrupole=0.,0.,0.,0.,0.,0.\PG=OH [O(B1)]\\@


 Spring appears, and we are once more children.
                                  -- Anonymous
 Job cpu time:       0 days  0 hours  0 minutes  2.7 seconds.
 File lengths (MBytes):  RWF=      5 Int=      1 D2E=      0 Chk=      1 Scr=      1
 Normal termination of Gaussian 09 at Mon Nov 25 16:02:19 2013.
